LAMMPS data file via write_data, version 2 Aug 2023, timestep = 250046, units = real

32 atoms
2 atom types

0.0010267863113717231 9.998973213688627 xlo xhi
0.0008941677206767764 8.659359832279323 ylo yhi
0 15 zlo zhi
-4.998967504047021 0 0 xy xz yz

Masses

1 10.811
2 14.007

Atoms # charge

9 2 -0.5148157602577448 2.4688987367127235 0.0044015089068638845 7.313259939705455 0 0 0
1 2 -0.5136907081135764 0.03151880956958925 0.0068919905193933215 7.415361555520499 0 0 0
3 2 -0.5114836242958213 -1.1862141105481774 2.10789680105889 7.4247399677851265 0 0 0
4 1 0.4968762424361284 -0.028882257730813595 2.8740733531385554 7.676983470496158 0 0 0
2 1 0.5121015094861077 1.266065704636664 0.7298497970712283 7.513699932488647 0 0 0
6 1 0.5165828016299926 -1.2869570910592634 5.083049321464857 7.377033301775342 0 0 0
13 2 -0.4857778647409293 -0.10234401965212747 4.3649656914659065 7.767899884351253 0 0 0
8 1 0.5148127643942633 -2.4655750527549856 7.219039365656618 7.255884472217833 0 0 0
10 1 0.4973177060610595 3.7400217897871637 0.727061808671423 7.272131691788857 0 0 0
12 1 0.3697900874577418 2.5049073053368756 2.6492389955434366 8.071010664019973 0 0 0
19 2 -0.4855692834698666 3.7422166311983034 2.1085713584944887 7.61250524088509 0 0 0
11 2 -0.4990086357133073 1.254620806323968 2.181246436180564 7.860338940606155 0 0 0
14 1 0.357136911669142 1.0514628097232912 5.175690814997546 8.005002312358533 0 0 0
21 1 -0.09724524504423909 2.437684834184791 4.35260734819278 8.478182265954606 0 0 0
16 1 0.5365730072612911 -0.025164506026166968 7.241484918962507 7.273046968451875 0 0 0
15 2 -0.5381136172719262 -1.2438634043675532 6.524260048550612 7.240103227696613 0 0 0
23 2 -0.4998655705914956 1.1886989341299545 6.531435972420344 7.602128365459324 0 0 0
18 1 0.5090949192092251 6.274972128859568 0.6950516853584777 7.170242920424601 0 0 0
20 1 0.471067440975614 5.053455417151358 2.878113873390476 7.566985660341855 0 0 0
22 1 0.3680813931540172 3.9437821231534405 5.149053697875953 7.921922406518825 0 0 0
24 1 0.4953635633994475 2.464043933501642 7.196179363064833 7.424792423057751 0 0 0
17 2 -0.5188011435808051 0.022100350553385033 8.64035049239569 7.173602550931313 0 -1 0
25 2 -0.5181067428406838 2.5118633190174076 8.625213977372194 7.23902201810683 0 -1 0
26 1 0.5255580763661483 8.746825813701376 0.6911783474026936 7.376907534526437 0 0 0
27 2 -0.4967447732373205 6.292787171053456 2.1718169638175175 7.253430663556904 0 0 0
30 1 0.5203025831839945 6.280367038258948 5.071394642758728 7.3579824338199025 0 0 0
28 1 0.5012346096736897 7.528716513840959 2.893671442577676 7.2759129021334985 0 0 0
5 2 -0.5242017251778897 7.4914418339220346 4.3380922655447565 7.295268844673412 -1 0 0
29 2 -0.4924059621727432 5.051687145521532 4.3449109720613 7.703952991671639 0 0 0
32 1 0.5107252667145638 5.033507781227421 7.233709247411442 7.395752180587738 0 0 0
7 2 -0.5180030876318941 6.226452047169306 6.486749764843282 7.254879915439615 0 0 0
31 2 -0.488785138932183 3.748219685712095 6.499203729766076 7.638461098081029 0 0 0

Velocities

9 0.000574044565715118 -0.006536304717203933 0.003830195885638474
1 -0.001046566172512652 -0.0005424950502999918 0.005432998656891711
3 -0.006195282056913313 -0.0016835347993795606 -0.00230940350249394
4 -0.004012503159304442 0.0018575487962377965 -0.005774748181096079
2 0.00750170258055005 0.0005500536171223953 0.0031960311606565863
6 0.001548338131738766 0.008647804549680827 -0.0008398263815209203
13 -0.0003317509825382942 0.003185124256979696 0.00211163324593351
8 0.0033108181370888013 0.006751079120092067 0.004511890216341902
10 -0.008869263210605712 -0.008491997444841118 0.0011728113993563247
12 -0.004466865899701911 0.0028625844641755843 0.004230332241074177
19 0.004408033270007228 -0.0009585337323650498 0.006047583201713022
11 -0.0025290790318844535 0.003264684021101486 -0.008661387790653568
14 0.007558417786747191 0.0038626454977424463 -0.0031779266433243527
21 -0.0020995013787197076 0.003697154912099384 -0.0026337957341188716
16 -0.003751922457708411 0.0002809746224581555 0.004512711369472334
15 0.004376876098919982 0.0010218721732373967 -0.002129458278227537
23 -0.004297269173688185 0.0019717038041147305 0.004348721224276829
18 0.0013824727785283887 -0.00027520446318790977 -0.0006035022770355099
20 0.004691410144162934 -0.010743198277303669 0.0025340260380531986
22 0.0027083914476794496 0.0046528201725365955 -0.005038484978371186
24 0.00046023215752971744 -0.0025871466002853794 0.004648883811513114
17 0.0013962379463181992 -0.0045495975326200365 -0.004704096333568657
25 -0.00531490419427227 -0.0015601622275376644 -0.005377575240153298
26 0.0035702531315013734 -0.004689174461088929 0.007403247168014289
27 -0.0030412671565201526 0.0013466782979810665 -0.001863256108326594
30 -0.00013392295022147797 0.0023073897266622082 -0.006321849553873996
28 0.007059589420234686 0.0038569001558343354 -0.0036358831523580853
5 -0.0033669858264834237 0.0004901894085577695 0.0036666049459772748
29 0.003311943576940727 -0.000352396680806317 0.0008239742075779287
32 -0.003177672529716474 0.00011691220828023034 0.0034101274145965487
7 -0.00023708479704764743 -0.003833844231217712 0.0015653280079050839
31 0.002043193127428751 -0.001032527836096867 -0.008643160672557425
