LAMMPS data file via write_data, version 2 Aug 2023, timestep = 250048, units = real

32 atoms
2 atom types

-0.017979210374111196 10.017979210374113 xlo xhi
-0.015570479549351875 8.67582447954936 ylo yhi
0 15 zlo zhi
-5.0179792411970325 0 0 xy xz yz

Masses

1 10.811
2 14.007

Atoms # charge

3 2 -0.4978561436459005 -1.246303974929018 2.2003671004199457 7.575057383688097 0 0 0
2 1 0.5161158678566982 1.2114339838641608 0.6634022444138931 7.626290655012239 0 0 0
11 2 -0.509864668724925 1.2030255800812408 2.0601719705667754 7.687080705133758 0 0 0
5 2 -0.5068416642702115 -2.511540761686839 4.369694950657298 7.447424414300811 0 0 0
6 1 0.509128940249114 -1.2505302766077755 5.0970586495589965 7.384545289266937 0 0 0
4 1 0.5167630113519723 0.00015876246629486362 2.889764522151473 7.580725916107148 0 0 0
8 1 0.5232861700731805 -2.4935616711435338 7.214161295949225 7.454182486825378 0 0 0
9 2 -0.5136520104567116 -2.503159798479654 8.617408720052603 7.596589016712803 0 -1 0
19 2 -0.5090454544539319 3.7234649606942263 2.1319144340131095 7.488283566233502 0 0 0
12 1 0.4931756796390804 2.4666353111006494 2.800558293890114 7.483593932854303 0 0 0
10 1 0.4977489584025779 3.735157105215546 0.6852657388237431 7.5337080479171 0 0 0
13 2 -0.5031538894183578 0.0032527435796406053 4.327774256347623 7.454164154092846 0 0 0
21 2 -0.4844373642710863 2.4904809355774673 4.292361671983422 7.459257255043962 0 0 0
14 1 0.4965182871340917 1.2513150965388566 5.085502306236565 7.5468922961514 0 0 0
15 2 -0.5315873604100699 -1.2531256770337977 6.524702666361323 7.45444812709285 0 0 0
16 1 0.5405495329345444 -0.012588030754053636 7.267839695466753 7.577340773734726 0 0 0
27 2 -0.5199227570946103 6.231329118637557 2.1715950398555 7.490590744150605 0 0 0
20 1 0.5214251606454573 5.000117375011733 2.8789384147291925 7.490612555132948 0 0 0
25 2 -0.5100684079636613 7.452426361399801 0.020337262240328856 7.319684247075171 0 0 0
18 1 0.5259391388259163 6.244014392346603 0.754138073042333 7.565778964235749 0 0 0
22 1 0.4686371965144232 3.730231238100611 5.066193741479599 7.43832836879744 0 0 0
24 1 0.5062340031530642 2.455696357206667 7.2514787661389555 7.403163391163121 0 0 0
23 2 -0.5169141763230269 1.2310550030322627 6.523796062698019 7.593948616677646 0 0 0
17 2 -0.5218167245182598 0.027251766339646183 8.642079952726746 7.62033922858644 0 -1 0
26 1 0.4915006026799585 8.708740475490327 0.7145320548258368 7.416082425725134 0 0 0
29 2 -0.4942300799847345 5.071514734415906 4.299694166612603 7.490354371705186 0 0 0
30 1 0.5188059394868729 6.280911762483442 5.0813207631690505 7.460753261915565 0 0 0
28 1 0.4978795361673225 7.519044559689557 2.907781636984704 7.517536864846553 0 0 0
31 2 -0.4977164490755569 3.7345969337589184 6.533843714375819 7.42447074317348 0 0 0
1 2 -0.5048596194930343 4.971659390949872 8.659609917146865 7.498257689821402 -1 -1 0
7 2 -0.5272464836806197 6.232167908616414 6.523457402419565 7.448481235250325 0 0 0
32 1 0.525505228670424 5.019554258847594 7.2265120460976044 7.457715718232164 0 0 0

Velocities

3 0.0015360536686277002 -0.003255054605801455 -0.0002959994804447735
2 -0.006322233697369768 0.0022355195173492173 0.00020769549210640994
11 0.0018598354180915497 -0.0018974755146184661 -0.009811430578277016
5 0.0030197274172855406 -0.003710055176566439 0.0030631961505246164
6 -0.0010442838707367139 0.001378983716467187 -0.001320736446436547
4 0.002231735241238021 0.003376343358069528 -0.00043708002957466814
8 0.0054097683312176615 0.005540183168639311 -0.004210239085430207
9 -0.005894322591724799 -0.002787098430235297 -0.00022831923856153096
19 0.0005193698733755388 -0.00404679302709418 0.004188629729060192
12 0.004070560181638142 0.006455561628943729 -0.0004520781799736634
10 -0.005922812381295148 0.005155584252303113 -0.0012641694217661848
13 -0.003508870553983624 -0.0012130308614925107 -0.002792389443103761
21 -0.004360466271755201 0.00026801101949441034 -0.0031832517233793714
14 -0.004008669354803462 0.007559735831875232 0.009505260244237522
15 -0.000674130643368983 -0.003743050291691013 0.0006120129075025139
16 0.002577335686190866 0.004385608762782918 0.008417620828960342
27 0.0023015748025578342 0.002886069288739857 0.006397896283042771
20 0.002357965884222122 0.0012965777035784634 -0.0019516462849228932
25 0.0007090575216516141 0.0026795640768612116 0.0029487987170251483
18 0.0013949424197676195 0.0015830209080344205 -0.0034633672905295203
22 0.002179624790996481 -0.003453771080549206 0.0022435188079166805
24 0.0008816917467940014 -0.004779237232599689 -0.004694366523948295
23 0.00790723064716957 -0.0066267651706706865 -0.005342566094377088
17 -0.003987937199725139 0.0010680074878227743 -4.536310640261042e-05
26 -0.0004657503861098999 -0.00899945859119971 0.0002571979966175516
29 0.0060761514936614695 0.004242396885716036 -0.0004689584995560112
30 -0.002433573181693708 -0.0025849458990873015 -0.006908060128871307
28 0.0018031210386196769 -0.00015835165332105263 -0.0003449737393763113
31 7.063747681379119e-05 -0.0012268354378598895 0.0015337143248808957
1 -0.004147511767524531 -0.002329534934794614 0.0036917478163809607
7 -0.0021894532293855007 0.0009095223139474548 0.004781480338557409
32 -0.0017207908222930323 0.0053432296575587806 -0.0021264426553367923
